# vtk DataFile Version 4.3.1
 
ASCII
DATASET UNSTRUCTURED_GRID
 POINTS         725 float
 
   0.000000   0.000000   0.000000
   0.050000   0.000000   0.000000
   0.100000   0.000000   0.000000
   0.100000   0.025000   0.000000
   0.100000   0.050000   0.000000
   0.100000   0.100000   0.000000
   0.050000   0.100000   0.000000
   0.000000   0.100000   0.000000
   0.000000   0.050000   0.000000
   0.000000   0.025000   0.000000
   0.050000   0.025000   0.000000
   0.050000   0.050000   0.000000
   0.008300   0.000000   0.000000
   0.016700   0.000000   0.000000
   0.025000   0.000000   0.000000
   0.033300   0.000000   0.000000
   0.041700   0.000000   0.000000
   0.004200   0.000000   0.000000
   0.012500   0.000000   0.000000
   0.020800   0.000000   0.000000
   0.029200   0.000000   0.000000
   0.037500   0.000000   0.000000
   0.045800   0.000000   0.000000
   0.058300   0.000000   0.000000
   0.066700   0.000000   0.000000
   0.075000   0.000000   0.000000
   0.083300   0.000000   0.000000
   0.091700   0.000000   0.000000
   0.054200   0.000000   0.000000
   0.062500   0.000000   0.000000
   0.070800   0.000000   0.000000
   0.079200   0.000000   0.000000
   0.087500   0.000000   0.000000
   0.095800   0.000000   0.000000
   0.100000   0.006200   0.000000
   0.100000   0.012500   0.000000
   0.100000   0.018700   0.000000
   0.100000   0.003100   0.000000
   0.100000   0.009400   0.000000
   0.100000   0.015600   0.000000
   0.100000   0.021900   0.000000
   0.100000   0.031200   0.000000
   0.100000   0.037500   0.000000
   0.100000   0.043700   0.000000
   0.100000   0.028100   0.000000
   0.100000   0.034400   0.000000
   0.100000   0.040600   0.000000
   0.100000   0.046900   0.000000
   0.100000   0.058300   0.000000
   0.100000   0.066700   0.000000
   0.100000   0.075000   0.000000
   0.100000   0.083300   0.000000
   0.100000   0.091700   0.000000
   0.100000   0.054200   0.000000
   0.100000   0.062500   0.000000
   0.100000   0.070800   0.000000
   0.100000   0.079200   0.000000
   0.100000   0.087500   0.000000
   0.100000   0.095800   0.000000
   0.091700   0.100000   0.000000
   0.083300   0.100000   0.000000
   0.075000   0.100000   0.000000
   0.066700   0.100000   0.000000
   0.058300   0.100000   0.000000
   0.095800   0.100000   0.000000
   0.087500   0.100000   0.000000
   0.079200   0.100000   0.000000
   0.070800   0.100000   0.000000
   0.062500   0.100000   0.000000
   0.054200   0.100000   0.000000
   0.041700   0.100000   0.000000
   0.033300   0.100000   0.000000
   0.025000   0.100000   0.000000
   0.016700   0.100000   0.000000
   0.008300   0.100000   0.000000
   0.045800   0.100000   0.000000
   0.037500   0.100000   0.000000
   0.029200   0.100000   0.000000
   0.020800   0.100000   0.000000
   0.012500   0.100000   0.000000
   0.004200   0.100000   0.000000
   0.000000   0.091700   0.000000
   0.000000   0.083300   0.000000
   0.000000   0.075000   0.000000
   0.000000   0.066700   0.000000
   0.000000   0.058300   0.000000
   0.000000   0.095800   0.000000
   0.000000   0.087500   0.000000
   0.000000   0.079200   0.000000
   0.000000   0.070800   0.000000
   0.000000   0.062500   0.000000
   0.000000   0.054200   0.000000
   0.000000   0.043800   0.000000
   0.000000   0.037500   0.000000
   0.000000   0.031200   0.000000
   0.000000   0.046900   0.000000
   0.000000   0.040600   0.000000
   0.000000   0.034400   0.000000
   0.000000   0.028100   0.000000
   0.000000   0.018800   0.000000
   0.000000   0.012500   0.000000
   0.000000   0.006300   0.000000
   0.000000   0.021900   0.000000
   0.000000   0.015600   0.000000
   0.000000   0.009400   0.000000
   0.000000   0.003100   0.000000
   0.091700   0.025000   0.000000
   0.083300   0.025000   0.000000
   0.075000   0.025000   0.000000
   0.066700   0.025000   0.000000
   0.058300   0.025000   0.000000
   0.095800   0.025000   0.000000
   0.087500   0.025000   0.000000
   0.079200   0.025000   0.000000
   0.070800   0.025000   0.000000
   0.062500   0.025000   0.000000
   0.054200   0.025000   0.000000
   0.050000   0.018800   0.000000
   0.050000   0.012500   0.000000
   0.050000   0.006300   0.000000
   0.050000   0.021900   0.000000
   0.050000   0.015600   0.000000
   0.050000   0.009400   0.000000
   0.050000   0.003100   0.000000
   0.041700   0.025000   0.000000
   0.033300   0.025000   0.000000
   0.025000   0.025000   0.000000
   0.016700   0.025000   0.000000
   0.008300   0.025000   0.000000
   0.045800   0.025000   0.000000
   0.037500   0.025000   0.000000
   0.029200   0.025000   0.000000
   0.020800   0.025000   0.000000
   0.012500   0.025000   0.000000
   0.004200   0.025000   0.000000
   0.091700   0.050000   0.000000
   0.083300   0.050000   0.000000
   0.075000   0.050000   0.000000
   0.066700   0.050000   0.000000
   0.058300   0.050000   0.000000
   0.095800   0.050000   0.000000
   0.087500   0.050000   0.000000
   0.079200   0.050000   0.000000
   0.070800   0.050000   0.000000
   0.062500   0.050000   0.000000
   0.054200   0.050000   0.000000
   0.050000   0.043800   0.000000
   0.050000   0.037500   0.000000
   0.050000   0.031200   0.000000
   0.050000   0.046900   0.000000
   0.050000   0.040600   0.000000
   0.050000   0.034400   0.000000
   0.050000   0.028100   0.000000
   0.041700   0.050000   0.000000
   0.033300   0.050000   0.000000
   0.025000   0.050000   0.000000
   0.016700   0.050000   0.000000
   0.008300   0.050000   0.000000
   0.045800   0.050000   0.000000
   0.037500   0.050000   0.000000
   0.029200   0.050000   0.000000
   0.020800   0.050000   0.000000
   0.012500   0.050000   0.000000
   0.004200   0.050000   0.000000
   0.050000   0.058300   0.000000
   0.050000   0.066700   0.000000
   0.050000   0.075000   0.000000
   0.050000   0.083300   0.000000
   0.050000   0.091700   0.000000
   0.050000   0.054200   0.000000
   0.050000   0.062500   0.000000
   0.050000   0.070800   0.000000
   0.050000   0.079200   0.000000
   0.050000   0.087500   0.000000
   0.050000   0.095800   0.000000
   0.008300   0.006300   0.000000
   0.008300   0.012500   0.000000
   0.008300   0.018800   0.000000
   0.016700   0.006300   0.000000
   0.016700   0.012500   0.000000
   0.016700   0.018800   0.000000
   0.025000   0.006300   0.000000
   0.025000   0.012500   0.000000
   0.025000   0.018800   0.000000
   0.033300   0.006300   0.000000
   0.033300   0.012500   0.000000
   0.033300   0.018800   0.000000
   0.041700   0.006300   0.000000
   0.041700   0.012500   0.000000
   0.041700   0.018800   0.000000
   0.008300   0.003100   0.000000
   0.004200   0.006300   0.000000
   0.004200   0.003100   0.000000
   0.008300   0.009400   0.000000
   0.004200   0.012500   0.000000
   0.004200   0.009400   0.000000
   0.008300   0.015600   0.000000
   0.004200   0.018800   0.000000
   0.004200   0.015600   0.000000
   0.008300   0.021900   0.000000
   0.004200   0.021900   0.000000
   0.016700   0.003100   0.000000
   0.012500   0.006300   0.000000
   0.012500   0.003100   0.000000
   0.016700   0.009400   0.000000
   0.012500   0.012500   0.000000
   0.012500   0.009400   0.000000
   0.016700   0.015600   0.000000
   0.012500   0.018800   0.000000
   0.012500   0.015600   0.000000
   0.016700   0.021900   0.000000
   0.012500   0.021900   0.000000
   0.025000   0.003100   0.000000
   0.020800   0.006300   0.000000
   0.020800   0.003100   0.000000
   0.025000   0.009400   0.000000
   0.020800   0.012500   0.000000
   0.020800   0.009400   0.000000
   0.025000   0.015600   0.000000
   0.020800   0.018800   0.000000
   0.020800   0.015600   0.000000
   0.025000   0.021900   0.000000
   0.020800   0.021900   0.000000
   0.033300   0.003100   0.000000
   0.029200   0.006300   0.000000
   0.029200   0.003100   0.000000
   0.033300   0.009400   0.000000
   0.029200   0.012500   0.000000
   0.029200   0.009400   0.000000
   0.033300   0.015600   0.000000
   0.029200   0.018800   0.000000
   0.029200   0.015600   0.000000
   0.033300   0.021900   0.000000
   0.029200   0.021900   0.000000
   0.041700   0.003100   0.000000
   0.037500   0.006300   0.000000
   0.037500   0.003100   0.000000
   0.041700   0.009400   0.000000
   0.037500   0.012500   0.000000
   0.037500   0.009400   0.000000
   0.041700   0.015600   0.000000
   0.037500   0.018800   0.000000
   0.037500   0.015600   0.000000
   0.041700   0.021900   0.000000
   0.037500   0.021900   0.000000
   0.045800   0.006300   0.000000
   0.045800   0.003100   0.000000
   0.045800   0.012500   0.000000
   0.045800   0.009400   0.000000
   0.045800   0.018800   0.000000
   0.045800   0.015600   0.000000
   0.045800   0.021900   0.000000
   0.058300   0.006300   0.000000
   0.058300   0.012500   0.000000
   0.058300   0.018800   0.000000
   0.066700   0.006300   0.000000
   0.066700   0.012500   0.000000
   0.066700   0.018800   0.000000
   0.075000   0.006300   0.000000
   0.075000   0.012500   0.000000
   0.075000   0.018700   0.000000
   0.083300   0.006200   0.000000
   0.083300   0.012500   0.000000
   0.083300   0.018700   0.000000
   0.091700   0.006200   0.000000
   0.091700   0.012500   0.000000
   0.091700   0.018700   0.000000
   0.058300   0.003100   0.000000
   0.054200   0.006300   0.000000
   0.054200   0.003100   0.000000
   0.058300   0.009400   0.000000
   0.054200   0.012500   0.000000
   0.054200   0.009400   0.000000
   0.058300   0.015600   0.000000
   0.054200   0.018800   0.000000
   0.054200   0.015600   0.000000
   0.058300   0.021900   0.000000
   0.054200   0.021900   0.000000
   0.066700   0.003100   0.000000
   0.062500   0.006300   0.000000
   0.062500   0.003100   0.000000
   0.066700   0.009400   0.000000
   0.062500   0.012500   0.000000
   0.062500   0.009400   0.000000
   0.066700   0.015600   0.000000
   0.062500   0.018800   0.000000
   0.062500   0.015600   0.000000
   0.066700   0.021900   0.000000
   0.062500   0.021900   0.000000
   0.075000   0.003100   0.000000
   0.070800   0.006300   0.000000
[...]
 POINT_DATA         725
 SCALARS displacement double
 LOOKUP_TABLE default
   0.000407
   0.036312
   0.000412
   0.000119
   0.000396
   0.000140
   0.000529
   0.000140
   0.000397
   0.000121
   0.420345
   0.010672
   0.001303
   0.003504
   0.008481
   0.017813
   0.030252
   0.000760
   0.002178
   0.005533
   0.012644
   0.023902
   0.034666
   0.030252
   0.017813
   0.008482
   0.003507
   0.001305
   0.034667
   0.023903
   0.012645
   0.005535
   0.002181
   0.000762
   0.000277
   0.000226
   0.000181
   0.000323
   0.000245
   0.000208
   0.000195
   0.000232
   0.000278
   0.000313
   0.000226
   0.000262
   0.000300
   0.000317
   0.000488
   0.000473
   0.000399
   0.000298
   0.000212
   0.000466
   0.000489
   0.000442
   0.000349
   0.000253
   0.000174
   0.000209
   0.000288
   0.000375
   0.000450
   0.000505
   0.000174
   0.000248
   0.000332
   0.000415
   0.000482
   0.000521
   0.000505
   0.000450
   0.000375
   0.000288
   0.000209
   0.000521
   0.000482
   0.000415
   0.000332
   0.000248
   0.000174
   0.000212
   0.000298
   0.000399
   0.000473
   0.000488
   0.000174
   0.000253
   0.000349
   0.000442
   0.000489
   0.000466
   0.000313
   0.000276
   0.000232
   0.000317
   0.000300
   0.000261
   0.000226
   0.000180
   0.000226
   0.000275
   0.000195
   0.000207
   0.000244
   0.000322
   0.000532
   0.001477
   0.001644
   0.005630
   0.056294
   0.000358
   0.001032
   0.001776
   0.000515
   0.016985
   0.110024
   0.150143
   0.073102
   0.045910
   0.244675
   0.101101
   0.056211
   0.039862
   0.056293
   0.005629
   0.001645
   0.001478
   0.000534
   0.110024
   0.016986
   0.000512
   0.001776
   0.001032
   0.000357
   0.000711
   0.001393
   0.002804
   0.005473
   0.008924
   0.000531
   0.000983
   0.001971
   0.004009
   0.007197
   0.010189
   0.029368
   0.064718
   0.146782
   0.018627
   0.044387
   0.095498
   0.243076
   0.008924
   0.005473
   0.002804
   0.001394
   0.000712
   0.010189
   0.007197
   0.004009
   0.001972
   0.000983
   0.000531
   0.006434
   0.003883
   0.002364
   0.001443
   0.000875
   0.008249
   0.004996
   0.003037
   0.001841
   0.001124
   0.000683
   0.000898
   0.000703
   0.000629
   0.002541
   0.002135
   0.001702
   0.006346
   0.005663
   0.003711
   0.015883
   0.016936
   0.013630
   0.034161
   0.046870
   0.059044
   0.001061
   0.000520
   0.000618
   0.000796
   0.000406
   0.000441
   0.000642
   0.000321
   0.000366
   0.000560
   0.000297
   0.002926
   0.001543
   0.001790
   0.002341
   0.001245
   0.001384
   0.001883
   0.001056
   0.001164
   0.001495
   0.001019
   0.006996
   0.004027
   0.004585
   0.005973
   0.003374
   0.003694
   0.004871
   0.002371
   0.002948
   0.002307
   0.001872
   0.015793
   0.010113
   0.010647
   0.016505
   0.009722
   0.010002
   0.015820
   0.006547
   0.008778
   0.007889
   0.003408
   0.030894
   0.024249
   0.022859
   0.039655
   0.029255
   0.026725
   0.054055
   0.027016
   0.030357
   0.047920
   0.021941
   0.042407
   0.037227
   0.064048
   0.051094
   0.104824
   0.082131
   0.124239
   0.034161
   0.046870
   0.059045
   0.015885
   0.016939
   0.013641
   0.006347
   0.005664
   0.003754
   0.002550
   0.002135
   0.001710
   0.000903
   0.000703
   0.000630
   0.030894
   0.042407
   0.037228
   0.039655
   0.064048
   0.051094
   0.054055
   0.104824
   0.082131
   0.047920
   0.124240
   0.015794
   0.024250
   0.022859
   0.016505
   0.029255
   0.026726
   0.015821
   0.027018
   0.030358
   0.007884
   0.021942
   0.006998
   0.010114
   0.010648
   0.005974
   0.009726
   0.010004
   0.004876
   0.006633
   0.008779
   0.002308
   0.003411
   0.002928
   0.004029
   0.004586
   0.002342
   0.003376
   0.003695
   0.001884
   0.002390
   0.002949
   0.001496
   0.001871
   0.001062
   0.001549
   0.001792
   0.000796
   0.001246
   0.001385
   0.000642
   0.001058
   0.001164
   0.000561
   0.001018
   0.000524
   0.000620
   0.000407
   0.000442
   0.000321
   0.000366
   0.000297
   0.000735
   0.000835
   0.000793
   0.002042
   0.002455
   0.002211
   0.004633
   0.006327
   0.005516
   0.013996
   0.016575
   0.012495
   0.057321
   0.041836
   0.023126
   0.000395
   0.000624
   0.000350
   0.000482
   0.000770
   0.000448
   0.000503
   0.000845
   0.000502
   0.000758
   0.000488
   0.001244
   0.001689
   0.001133
   0.001451
   0.002288
   0.001391
   0.001332
   0.002420
   0.001429
   0.001853
   0.001185
   0.002989
   0.003046
   0.002276
   0.003878
   0.005749
   0.003610
   0.003533
   0.006169
   0.003853
   0.004395
   0.002876
   0.007515
   0.008364
   0.004350
   0.010207
   0.015945
   0.009591
   0.008509
   0.015054
   0.009820
   0.009221
   0.006573
   0.026385
   0.047009
   0.021707
   0.026916
   0.050886
   0.029067
   0.017529
   0.032112
   0.022675
   0.015530
   0.012361
   0.101938
   0.122960
   0.056649
   0.077282
   0.027560
   0.040528
   0.017813
   0.000832
   0.001470
   0.002529
   0.004083
   0.005715
   0.000763
   0.001233
   0.001939
   0.002785
   0.003566
   0.000622
   0.000939
   0.001358
   0.001829
   0.002210
   0.000452
   0.000674
   0.000916
   0.001164
   0.001364
   0.000306
   0.000440
   0.000592
   0.000731
   0.000835
   0.000640
   0.000803
   0.000612
   0.001101
   0.001481
   0.001083
   0.001936
   0.002734
   0.002013
   0.003261
   0.004794
   0.003682
   0.004943
   0.007151
   0.006011
   0.006243
   0.007952
   0.000604
   0.000817
   0.000635
   0.000971
   0.001373
   0.001059
   0.001555
   0.002245
   0.001762
   0.002355
   0.003394
   0.002802
   0.003208
   0.004525
   0.003998
   0.003802
   0.004874
   0.000499
   0.000694
   0.000555
   0.000768
   0.001087
   0.000873
   0.001134
   0.001640
   0.001344
   0.001599
   0.002277
   0.001957
   0.002037
   0.002817
   0.002571
   0.002323
   0.002983
   0.000364
   0.000537
   0.000431
   0.000557
   0.000800
   0.000659
   0.000789
   0.001115
   0.000948
   0.001045
   0.001454
   0.001293
   0.001278
   0.001733
   0.001610
   0.001419
   0.001808
   0.000257
   0.000374
   0.000308
   0.000371
   0.000550
   0.000457
   0.000513
   0.000743
   0.000641
   0.000663
   0.000927
   0.000837
   0.000789
   0.001068
   0.001008
   0.000865
   0.001110
   0.000255
   0.000214
   0.000355
   0.000305
   0.000469
   0.000412
   0.000575
   0.000524
   0.000653
   0.000618
   0.000675
   0.005715
   0.004083
   0.002529
   0.001471
   0.000832
   0.003566
   0.002785
   0.001939
   0.001233
   0.000763
   0.002210
   0.001829
   0.001358
   0.000939
   0.000622
   0.001364
   0.001164
   0.000916
   0.000674
   0.000452
   0.000835
   0.000731
   0.000592
   0.000440
   0.000306
   0.006243
   0.007151
   0.007952
   0.004943
   0.004794
   0.006011
   0.003261
   0.002734
   0.003682
   0.001936
   0.001482
   0.002013
   0.001101
   0.000803
   0.001083
   0.000641
   0.000613
   0.003802
   0.004525
   0.004874
   0.003208
   0.003394
   0.003998
   0.002355
   0.002245
   0.002802
   0.001555
   0.001373
   0.001762
   0.000971
   0.000817
   0.001059
   0.000604
   0.000636
   0.002323
   0.002817
   0.002983
   0.002037
   0.002278
   0.002571
   0.001599
   0.001640
   0.001957
   0.001134
   0.001087
   0.001344
   0.000768
   0.000695
   0.000873
   0.000499
   0.000555
   0.001419
   0.001733
   0.001808
   0.001278
   0.001454
   0.001610
   0.001045
   0.001115
   0.001293
   0.000789
   0.000800
   0.000948
   0.000557
   0.000537
   0.000659
   0.000364
   0.000431
   0.000865
   0.001068
   0.001110
   0.000789
   0.000927
   0.001008
   0.000663
   0.000743
   0.000837
   0.000513
   0.000550
   0.000641
   0.000371
   0.000374
   0.000457
   0.000257
   0.000309
   0.000653
   0.000675
   0.000575
   0.000618
   0.000469
   0.000524
   0.000355
   0.000412
   0.000255
   0.000305
   0.000214
   0.057322
   0.041836
   0.023126
   0.013996
   0.016575
   0.012495
   0.004633
   0.006327
   0.005516
   0.002042
   0.002454
   0.002201
   0.000734
   0.000834
   0.000791
   0.101937
   0.047008
   0.122959
   0.056648
   0.050886
   0.077282
   0.027560
   0.032112
   0.040528
   0.015530
   0.017813
   0.026385
   0.008364
   0.021708
   0.026916
   0.015944
   0.029067
   0.017529
   0.015054
   0.022675
   0.009221
   0.012361
   0.007514
   0.003046
   0.004351
   0.010207
   0.005749
   0.009591
   0.008509
   0.006169
   0.009820
   0.004395
   0.006573
   0.002988
   0.001689
   0.002276
   0.003878
   0.002287
   0.003609
   0.003534
   0.002419
   0.003853
   0.001853
   0.002875
   0.001245
   0.000625
   0.001133
   0.001450
   0.000770
   0.001391
   0.001328
   0.000844
   0.001428
   0.000758
   0.001186
   0.000395
   0.000350
   0.000481
   0.000448
   0.000502
   0.000501
   0.000489
