# vtk DataFile Version 4.3.1
 
ASCII
DATASET UNSTRUCTURED_GRID
 POINTS         725 float
 
   0.000000   0.000000   0.000000
   0.050000   0.000000   0.000000
   0.100000   0.000000   0.000000
   0.100000   0.025000   0.000000
   0.100000   0.050000   0.000000
   0.100000   0.100000   0.000000
   0.050000   0.100000   0.000000
   0.000000   0.100000   0.000000
   0.000000   0.050000   0.000000
   0.000000   0.025000   0.000000
   0.050000   0.025000   0.000000
   0.050000   0.050000   0.000000
   0.008300   0.000000   0.000000
   0.016700   0.000000   0.000000
   0.025000   0.000000   0.000000
   0.033300   0.000000   0.000000
   0.041700   0.000000   0.000000
   0.004200   0.000000   0.000000
   0.012500   0.000000   0.000000
   0.020800   0.000000   0.000000
   0.029200   0.000000   0.000000
   0.037500   0.000000   0.000000
   0.045800   0.000000   0.000000
   0.058300   0.000000   0.000000
   0.066700   0.000000   0.000000
   0.075000   0.000000   0.000000
   0.083300   0.000000   0.000000
   0.091700   0.000000   0.000000
   0.054200   0.000000   0.000000
   0.062500   0.000000   0.000000
   0.070800   0.000000   0.000000
   0.079200   0.000000   0.000000
   0.087500   0.000000   0.000000
   0.095800   0.000000   0.000000
   0.100000   0.006200   0.000000
   0.100000   0.012500   0.000000
   0.100000   0.018700   0.000000
   0.100000   0.003100   0.000000
   0.100000   0.009400   0.000000
   0.100000   0.015600   0.000000
   0.100000   0.021900   0.000000
   0.100000   0.031200   0.000000
   0.100000   0.037500   0.000000
   0.100000   0.043700   0.000000
   0.100000   0.028100   0.000000
   0.100000   0.034400   0.000000
   0.100000   0.040600   0.000000
   0.100000   0.046900   0.000000
   0.100000   0.058300   0.000000
   0.100000   0.066700   0.000000
   0.100000   0.075000   0.000000
   0.100000   0.083300   0.000000
   0.100000   0.091700   0.000000
   0.100000   0.054200   0.000000
   0.100000   0.062500   0.000000
   0.100000   0.070800   0.000000
   0.100000   0.079200   0.000000
   0.100000   0.087500   0.000000
   0.100000   0.095800   0.000000
   0.091700   0.100000   0.000000
   0.083300   0.100000   0.000000
   0.075000   0.100000   0.000000
   0.066700   0.100000   0.000000
   0.058300   0.100000   0.000000
   0.095800   0.100000   0.000000
   0.087500   0.100000   0.000000
   0.079200   0.100000   0.000000
   0.070800   0.100000   0.000000
   0.062500   0.100000   0.000000
   0.054200   0.100000   0.000000
   0.041700   0.100000   0.000000
   0.033300   0.100000   0.000000
   0.025000   0.100000   0.000000
   0.016700   0.100000   0.000000
   0.008300   0.100000   0.000000
   0.045800   0.100000   0.000000
   0.037500   0.100000   0.000000
   0.029200   0.100000   0.000000
   0.020800   0.100000   0.000000
   0.012500   0.100000   0.000000
   0.004200   0.100000   0.000000
   0.000000   0.091700   0.000000
   0.000000   0.083300   0.000000
   0.000000   0.075000   0.000000
   0.000000   0.066700   0.000000
   0.000000   0.058300   0.000000
   0.000000   0.095800   0.000000
   0.000000   0.087500   0.000000
   0.000000   0.079200   0.000000
   0.000000   0.070800   0.000000
   0.000000   0.062500   0.000000
   0.000000   0.054200   0.000000
   0.000000   0.043800   0.000000
   0.000000   0.037500   0.000000
   0.000000   0.031200   0.000000
   0.000000   0.046900   0.000000
   0.000000   0.040600   0.000000
   0.000000   0.034400   0.000000
   0.000000   0.028100   0.000000
   0.000000   0.018800   0.000000
   0.000000   0.012500   0.000000
   0.000000   0.006300   0.000000
   0.000000   0.021900   0.000000
   0.000000   0.015600   0.000000
   0.000000   0.009400   0.000000
   0.000000   0.003100   0.000000
   0.091700   0.025000   0.000000
   0.083300   0.025000   0.000000
   0.075000   0.025000   0.000000
   0.066700   0.025000   0.000000
   0.058300   0.025000   0.000000
   0.095800   0.025000   0.000000
   0.087500   0.025000   0.000000
   0.079200   0.025000   0.000000
   0.070800   0.025000   0.000000
   0.062500   0.025000   0.000000
   0.054200   0.025000   0.000000
   0.050000   0.018800   0.000000
   0.050000   0.012500   0.000000
   0.050000   0.006300   0.000000
   0.050000   0.021900   0.000000
   0.050000   0.015600   0.000000
   0.050000   0.009400   0.000000
   0.050000   0.003100   0.000000
   0.041700   0.025000   0.000000
   0.033300   0.025000   0.000000
   0.025000   0.025000   0.000000
   0.016700   0.025000   0.000000
   0.008300   0.025000   0.000000
   0.045800   0.025000   0.000000
   0.037500   0.025000   0.000000
   0.029200   0.025000   0.000000
   0.020800   0.025000   0.000000
   0.012500   0.025000   0.000000
   0.004200   0.025000   0.000000
   0.091700   0.050000   0.000000
   0.083300   0.050000   0.000000
   0.075000   0.050000   0.000000
   0.066700   0.050000   0.000000
   0.058300   0.050000   0.000000
   0.095800   0.050000   0.000000
   0.087500   0.050000   0.000000
   0.079200   0.050000   0.000000
   0.070800   0.050000   0.000000
   0.062500   0.050000   0.000000
   0.054200   0.050000   0.000000
   0.050000   0.043800   0.000000
   0.050000   0.037500   0.000000
   0.050000   0.031200   0.000000
   0.050000   0.046900   0.000000
   0.050000   0.040600   0.000000
   0.050000   0.034400   0.000000
   0.050000   0.028100   0.000000
   0.041700   0.050000   0.000000
   0.033300   0.050000   0.000000
   0.025000   0.050000   0.000000
   0.016700   0.050000   0.000000
   0.008300   0.050000   0.000000
   0.045800   0.050000   0.000000
   0.037500   0.050000   0.000000
   0.029200   0.050000   0.000000
   0.020800   0.050000   0.000000
   0.012500   0.050000   0.000000
   0.004200   0.050000   0.000000
   0.050000   0.058300   0.000000
   0.050000   0.066700   0.000000
   0.050000   0.075000   0.000000
   0.050000   0.083300   0.000000
   0.050000   0.091700   0.000000
   0.050000   0.054200   0.000000
   0.050000   0.062500   0.000000
   0.050000   0.070800   0.000000
   0.050000   0.079200   0.000000
   0.050000   0.087500   0.000000
   0.050000   0.095800   0.000000
   0.008300   0.006300   0.000000
   0.008300   0.012500   0.000000
   0.008300   0.018800   0.000000
   0.016700   0.006300   0.000000
   0.016700   0.012500   0.000000
   0.016700   0.018800   0.000000
   0.025000   0.006300   0.000000
   0.025000   0.012500   0.000000
   0.025000   0.018800   0.000000
   0.033300   0.006300   0.000000
   0.033300   0.012500   0.000000
   0.033300   0.018800   0.000000
   0.041700   0.006300   0.000000
   0.041700   0.012500   0.000000
   0.041700   0.018800   0.000000
   0.008300   0.003100   0.000000
   0.004200   0.006300   0.000000
   0.004200   0.003100   0.000000
   0.008300   0.009400   0.000000
   0.004200   0.012500   0.000000
   0.004200   0.009400   0.000000
   0.008300   0.015600   0.000000
   0.004200   0.018800   0.000000
   0.004200   0.015600   0.000000
   0.008300   0.021900   0.000000
   0.004200   0.021900   0.000000
   0.016700   0.003100   0.000000
   0.012500   0.006300   0.000000
   0.012500   0.003100   0.000000
   0.016700   0.009400   0.000000
   0.012500   0.012500   0.000000
   0.012500   0.009400   0.000000
   0.016700   0.015600   0.000000
   0.012500   0.018800   0.000000
   0.012500   0.015600   0.000000
   0.016700   0.021900   0.000000
   0.012500   0.021900   0.000000
   0.025000   0.003100   0.000000
   0.020800   0.006300   0.000000
   0.020800   0.003100   0.000000
   0.025000   0.009400   0.000000
   0.020800   0.012500   0.000000
   0.020800   0.009400   0.000000
   0.025000   0.015600   0.000000
   0.020800   0.018800   0.000000
   0.020800   0.015600   0.000000
   0.025000   0.021900   0.000000
   0.020800   0.021900   0.000000
   0.033300   0.003100   0.000000
   0.029200   0.006300   0.000000
   0.029200   0.003100   0.000000
   0.033300   0.009400   0.000000
   0.029200   0.012500   0.000000
   0.029200   0.009400   0.000000
   0.033300   0.015600   0.000000
   0.029200   0.018800   0.000000
   0.029200   0.015600   0.000000
   0.033300   0.021900   0.000000
   0.029200   0.021900   0.000000
   0.041700   0.003100   0.000000
   0.037500   0.006300   0.000000
   0.037500   0.003100   0.000000
   0.041700   0.009400   0.000000
   0.037500   0.012500   0.000000
   0.037500   0.009400   0.000000
   0.041700   0.015600   0.000000
   0.037500   0.018800   0.000000
   0.037500   0.015600   0.000000
   0.041700   0.021900   0.000000
   0.037500   0.021900   0.000000
   0.045800   0.006300   0.000000
   0.045800   0.003100   0.000000
   0.045800   0.012500   0.000000
   0.045800   0.009400   0.000000
   0.045800   0.018800   0.000000
   0.045800   0.015600   0.000000
   0.045800   0.021900   0.000000
   0.058300   0.006300   0.000000
   0.058300   0.012500   0.000000
   0.058300   0.018800   0.000000
   0.066700   0.006300   0.000000
   0.066700   0.012500   0.000000
   0.066700   0.018800   0.000000
   0.075000   0.006300   0.000000
   0.075000   0.012500   0.000000
   0.075000   0.018700   0.000000
   0.083300   0.006200   0.000000
   0.083300   0.012500   0.000000
   0.083300   0.018700   0.000000
   0.091700   0.006200   0.000000
   0.091700   0.012500   0.000000
   0.091700   0.018700   0.000000
   0.058300   0.003100   0.000000
   0.054200   0.006300   0.000000
   0.054200   0.003100   0.000000
   0.058300   0.009400   0.000000
   0.054200   0.012500   0.000000
   0.054200   0.009400   0.000000
   0.058300   0.015600   0.000000
   0.054200   0.018800   0.000000
   0.054200   0.015600   0.000000
   0.058300   0.021900   0.000000
   0.054200   0.021900   0.000000
   0.066700   0.003100   0.000000
   0.062500   0.006300   0.000000
   0.062500   0.003100   0.000000
   0.066700   0.009400   0.000000
   0.062500   0.012500   0.000000
   0.062500   0.009400   0.000000
   0.066700   0.015600   0.000000
   0.062500   0.018800   0.000000
   0.062500   0.015600   0.000000
   0.066700   0.021900   0.000000
   0.062500   0.021900   0.000000
   0.075000   0.003100   0.000000
   0.070800   0.006300   0.000000
[...]
 POINT_DATA         725
 SCALARS displacement double
 LOOKUP_TABLE default
   0.000087
   0.016157
   0.000088
   0.000013
   0.000137
   0.000017
   0.000164
   0.000017
   0.000138
   0.000014
   0.258686
   0.004829
   0.000409
   0.001264
   0.003366
   0.007573
   0.013302
   0.000234
   0.000723
   0.002118
   0.005216
   0.010358
   0.015480
   0.013302
   0.007573
   0.003367
   0.001266
   0.000411
   0.015480
   0.010358
   0.005216
   0.002120
   0.000725
   0.000235
   0.000071
   0.000078
   0.000059
   0.000063
   0.000078
   0.000069
   0.000051
   0.000057
   0.000092
   0.000108
   0.000048
   0.000073
   0.000103
   0.000116
   0.000171
   0.000155
   0.000119
   0.000081
   0.000048
   0.000163
   0.000167
   0.000138
   0.000100
   0.000065
   0.000031
   0.000045
   0.000075
   0.000107
   0.000134
   0.000155
   0.000030
   0.000060
   0.000092
   0.000122
   0.000146
   0.000161
   0.000155
   0.000134
   0.000107
   0.000075
   0.000045
   0.000161
   0.000146
   0.000122
   0.000092
   0.000060
   0.000030
   0.000048
   0.000081
   0.000119
   0.000155
   0.000171
   0.000031
   0.000065
   0.000100
   0.000138
   0.000167
   0.000163
   0.000108
   0.000091
   0.000056
   0.000116
   0.000102
   0.000073
   0.000048
   0.000058
   0.000078
   0.000071
   0.000050
   0.000068
   0.000078
   0.000062
   0.000190
   0.000759
   0.001006
   0.001611
   0.028551
   0.000093
   0.000341
   0.001043
   0.000764
   0.006677
   0.058895
   0.083905
   0.037045
   0.021343
   0.144090
   0.053662
   0.027196
   0.017974
   0.028551
   0.001612
   0.001004
   0.000758
   0.000190
   0.058895
   0.006677
   0.000766
   0.001044
   0.000342
   0.000092
   0.000263
   0.000539
   0.001157
   0.002349
   0.004014
   0.000185
   0.000378
   0.000782
   0.001681
   0.003176
   0.004608
   0.014457
   0.033750
   0.082659
   0.008823
   0.022423
   0.051527
   0.143518
   0.004014
   0.002349
   0.001157
   0.000539
   0.000263
   0.004608
   0.003176
   0.001681
   0.000782
   0.000378
   0.000185
   0.002781
   0.001589
   0.000924
   0.000531
   0.000299
   0.003656
   0.002100
   0.001216
   0.000699
   0.000400
   0.000223
   0.000253
   0.000247
   0.000227
   0.000916
   0.000802
   0.000777
   0.002579
   0.002512
   0.001919
   0.006889
   0.007827
   0.006433
   0.015561
   0.022953
   0.030443
   0.000324
   0.000136
   0.000160
   0.000239
   0.000138
   0.000142
   0.000230
   0.000113
   0.000131
   0.000168
   0.000092
   0.001034
   0.000500
   0.000601
   0.000815
   0.000436
   0.000444
   0.000797
   0.000380
   0.000423
   0.000681
   0.000390
   0.002775
   0.001557
   0.001702
   0.002564
   0.001446
   0.001477
   0.002264
   0.001229
   0.001392
   0.001304
   0.001103
   0.006702
   0.004268
   0.004400
   0.007406
   0.004351
   0.004397
   0.007305
   0.003192
   0.004069
   0.003344
   0.001811
   0.013657
   0.010723
   0.009934
   0.018724
   0.013883
   0.012239
   0.027267
   0.012902
   0.014746
   0.023053
   0.009977
   0.019514
   0.016727
   0.031877
   0.024379
   0.056421
   0.042599
   0.068657
   0.015561
   0.022953
   0.030445
   0.006889
   0.007829
   0.006439
   0.002580
   0.002511
   0.001935
   0.000920
   0.000801
   0.000780
   0.000254
   0.000247
   0.000228
   0.013657
   0.019514
   0.016727
   0.018724
   0.031877
   0.024379
   0.027267
   0.056421
   0.042599
   0.023052
   0.068657
   0.006702
   0.010723
   0.009934
   0.007406
   0.013883
   0.012239
   0.007307
   0.012903
   0.014747
   0.003340
   0.009978
   0.002775
   0.004268
   0.004401
   0.002565
   0.004353
   0.004398
   0.002267
   0.003230
   0.004069
   0.001305
   0.001812
   0.001034
   0.001558
   0.001702
   0.000816
   0.001447
   0.001478
   0.000798
   0.001233
   0.001391
   0.000681
   0.001103
   0.000325
   0.000503
   0.000601
   0.000239
   0.000436
   0.000444
   0.000231
   0.000381
   0.000423
   0.000169
   0.000389
   0.000136
   0.000160
   0.000138
   0.000142
   0.000114
   0.000131
   0.000092
   0.000247
   0.000291
   0.000287
   0.000885
   0.000939
   0.000864
   0.002166
   0.002836
   0.002393
   0.006568
   0.007794
   0.005689
   0.029833
   0.021092
   0.011208
   0.000118
   0.000171
   0.000091
   0.000169
   0.000268
   0.000146
   0.000177
   0.000287
   0.000175
   0.000277
   0.000189
   0.000433
   0.000742
   0.000414
   0.000513
   0.000922
   0.000491
   0.000507
   0.000935
   0.000520
   0.000717
   0.000433
   0.001402
   0.001498
   0.001214
   0.001686
   0.002579
   0.001607
   0.001429
   0.002732
   0.001636
   0.001849
   0.001152
   0.003461
   0.003505
   0.002054
   0.004614
   0.007436
   0.004387
   0.003808
   0.006975
   0.004406
   0.004186
   0.002876
   0.012687
   0.022717
   0.009870
   0.013093
   0.026119
   0.014339
   0.008249
   0.015859
   0.010838
   0.007305
   0.005735
   0.055363
   0.068195
   0.029030
   0.040787
   0.013404
   0.020195
   0.008408
   0.000298
   0.000571
   0.001035
   0.001703
   0.002444
   0.000275
   0.000458
   0.000763
   0.001126
   0.001454
   0.000212
   0.000341
   0.000502
   0.000701
   0.000861
   0.000139
   0.000227
   0.000322
   0.000419
   0.000499
   0.000085
   0.000133
   0.000191
   0.000244
   0.000284
   0.000227
   0.000293
   0.000215
   0.000410
   0.000576
   0.000411
   0.000776
   0.001129
   0.000808
   0.001348
   0.002028
   0.001537
   0.002090
   0.003140
   0.002599
   0.002690
   0.003515
   0.000210
   0.000295
   0.000226
   0.000356
   0.000523
   0.000391
   0.000595
   0.000903
   0.000691
   0.000943
   0.001398
   0.001143
   0.001301
   0.001885
   0.001656
   0.001558
   0.002044
   0.000159
   0.000246
   0.000184
   0.000272
   0.000401
   0.000318
   0.000416
   0.000626
   0.000506
   0.000603
   0.000898
   0.000760
   0.000787
   0.001126
   0.001021
   0.000908
   0.001197
   0.000106
   0.000173
   0.000131
   0.000179
   0.000280
   0.000221
   0.000272
   0.000403
   0.000338
   0.000373
   0.000541
   0.000476
   0.000465
   0.000655
   0.000604
   0.000520
   0.000684
   0.000067
   0.000110
   0.000088
   0.000108
   0.000175
   0.000141
   0.000160
   0.000251
   0.000210
   0.000217
   0.000322
   0.000287
   0.000267
   0.000378
   0.000355
   0.000296
   0.000394
   0.000065
   0.000049
   0.000102
   0.000084
   0.000143
   0.000123
   0.000182
   0.000163
   0.000212
   0.000198
   0.000220
   0.002444
   0.001703
   0.001035
   0.000571
   0.000298
   0.001454
   0.001126
   0.000763
   0.000458
   0.000275
   0.000861
   0.000701
   0.000502
   0.000341
   0.000212
   0.000499
   0.000419
   0.000322
   0.000227
   0.000139
   0.000284
   0.000244
   0.000191
   0.000133
   0.000085
   0.002690
   0.003140
   0.003515
   0.002090
   0.002028
   0.002599
   0.001348
   0.001129
   0.001537
   0.000776
   0.000576
   0.000808
   0.000410
   0.000293
   0.000411
   0.000227
   0.000215
   0.001558
   0.001885
   0.002044
   0.001301
   0.001398
   0.001656
   0.000943
   0.000903
   0.001143
   0.000595
   0.000523
   0.000691
   0.000356
   0.000295
   0.000391
   0.000210
   0.000226
   0.000908
   0.001126
   0.001197
   0.000787
   0.000898
   0.001021
   0.000603
   0.000626
   0.000760
   0.000416
   0.000401
   0.000506
   0.000272
   0.000246
   0.000318
   0.000159
   0.000184
   0.000520
   0.000655
   0.000684
   0.000465
   0.000541
   0.000604
   0.000373
   0.000403
   0.000476
   0.000272
   0.000280
   0.000338
   0.000179
   0.000173
   0.000221
   0.000106
   0.000131
   0.000296
   0.000378
   0.000394
   0.000267
   0.000322
   0.000355
   0.000217
   0.000251
   0.000287
   0.000160
   0.000175
   0.000210
   0.000108
   0.000110
   0.000141
   0.000067
   0.000088
   0.000212
   0.000220
   0.000182
   0.000198
   0.000143
   0.000163
   0.000102
   0.000123
   0.000065
   0.000084
   0.000049
   0.029833
   0.021092
   0.011208
   0.006568
   0.007794
   0.005689
   0.002166
   0.002836
   0.002393
   0.000886
   0.000938
   0.000860
   0.000247
   0.000291
   0.000287
   0.055363
   0.022717
   0.068195
   0.029030
   0.026118
   0.040787
   0.013404
   0.015859
   0.020195
   0.007305
   0.008408
   0.012687
   0.003505
   0.009870
   0.013092
   0.007436
   0.014339
   0.008249
   0.006975
   0.010838
   0.004186
   0.005735
   0.003461
   0.001498
   0.002054
   0.004614
   0.002579
   0.004387
   0.003808
   0.002732
   0.004406
   0.001849
   0.002876
   0.001402
   0.000743
   0.001214
   0.001686
   0.000922
   0.001607
   0.001430
   0.000935
   0.001635
   0.000717
   0.001152
   0.000432
   0.000172
   0.000414
   0.000512
   0.000268
   0.000491
   0.000506
   0.000287
   0.000520
   0.000277
   0.000433
   0.000118
   0.000091
   0.000168
   0.000146
   0.000177
   0.000175
   0.000189
