# vtk DataFile Version 4.3.1
 
ASCII
DATASET UNSTRUCTURED_GRID
 POINTS         725 float
 
   0.000000   0.000000   0.000000
   0.050000   0.000000   0.000000
   0.100000   0.000000   0.000000
   0.100000   0.025000   0.000000
   0.100000   0.050000   0.000000
   0.100000   0.100000   0.000000
   0.050000   0.100000   0.000000
   0.000000   0.100000   0.000000
   0.000000   0.050000   0.000000
   0.000000   0.025000   0.000000
   0.050000   0.025000   0.000000
   0.050000   0.050000   0.000000
   0.008300   0.000000   0.000000
   0.016700   0.000000   0.000000
   0.025000   0.000000   0.000000
   0.033300   0.000000   0.000000
   0.041700   0.000000   0.000000
   0.004200   0.000000   0.000000
   0.012500   0.000000   0.000000
   0.020800   0.000000   0.000000
   0.029200   0.000000   0.000000
   0.037500   0.000000   0.000000
   0.045800   0.000000   0.000000
   0.058300   0.000000   0.000000
   0.066700   0.000000   0.000000
   0.075000   0.000000   0.000000
   0.083300   0.000000   0.000000
   0.091700   0.000000   0.000000
   0.054200   0.000000   0.000000
   0.062500   0.000000   0.000000
   0.070800   0.000000   0.000000
   0.079200   0.000000   0.000000
   0.087500   0.000000   0.000000
   0.095800   0.000000   0.000000
   0.100000   0.006200   0.000000
   0.100000   0.012500   0.000000
   0.100000   0.018700   0.000000
   0.100000   0.003100   0.000000
   0.100000   0.009400   0.000000
   0.100000   0.015600   0.000000
   0.100000   0.021900   0.000000
   0.100000   0.031200   0.000000
   0.100000   0.037500   0.000000
   0.100000   0.043700   0.000000
   0.100000   0.028100   0.000000
   0.100000   0.034400   0.000000
   0.100000   0.040600   0.000000
   0.100000   0.046900   0.000000
   0.100000   0.058300   0.000000
   0.100000   0.066700   0.000000
   0.100000   0.075000   0.000000
   0.100000   0.083300   0.000000
   0.100000   0.091700   0.000000
   0.100000   0.054200   0.000000
   0.100000   0.062500   0.000000
   0.100000   0.070800   0.000000
   0.100000   0.079200   0.000000
   0.100000   0.087500   0.000000
   0.100000   0.095800   0.000000
   0.091700   0.100000   0.000000
   0.083300   0.100000   0.000000
   0.075000   0.100000   0.000000
   0.066700   0.100000   0.000000
   0.058300   0.100000   0.000000
   0.095800   0.100000   0.000000
   0.087500   0.100000   0.000000
   0.079200   0.100000   0.000000
   0.070800   0.100000   0.000000
   0.062500   0.100000   0.000000
   0.054200   0.100000   0.000000
   0.041700   0.100000   0.000000
   0.033300   0.100000   0.000000
   0.025000   0.100000   0.000000
   0.016700   0.100000   0.000000
   0.008300   0.100000   0.000000
   0.045800   0.100000   0.000000
   0.037500   0.100000   0.000000
   0.029200   0.100000   0.000000
   0.020800   0.100000   0.000000
   0.012500   0.100000   0.000000
   0.004200   0.100000   0.000000
   0.000000   0.091700   0.000000
   0.000000   0.083300   0.000000
   0.000000   0.075000   0.000000
   0.000000   0.066700   0.000000
   0.000000   0.058300   0.000000
   0.000000   0.095800   0.000000
   0.000000   0.087500   0.000000
   0.000000   0.079200   0.000000
   0.000000   0.070800   0.000000
   0.000000   0.062500   0.000000
   0.000000   0.054200   0.000000
   0.000000   0.043800   0.000000
   0.000000   0.037500   0.000000
   0.000000   0.031200   0.000000
   0.000000   0.046900   0.000000
   0.000000   0.040600   0.000000
   0.000000   0.034400   0.000000
   0.000000   0.028100   0.000000
   0.000000   0.018800   0.000000
   0.000000   0.012500   0.000000
   0.000000   0.006300   0.000000
   0.000000   0.021900   0.000000
   0.000000   0.015600   0.000000
   0.000000   0.009400   0.000000
   0.000000   0.003100   0.000000
   0.091700   0.025000   0.000000
   0.083300   0.025000   0.000000
   0.075000   0.025000   0.000000
   0.066700   0.025000   0.000000
   0.058300   0.025000   0.000000
   0.095800   0.025000   0.000000
   0.087500   0.025000   0.000000
   0.079200   0.025000   0.000000
   0.070800   0.025000   0.000000
   0.062500   0.025000   0.000000
   0.054200   0.025000   0.000000
   0.050000   0.018800   0.000000
   0.050000   0.012500   0.000000
   0.050000   0.006300   0.000000
   0.050000   0.021900   0.000000
   0.050000   0.015600   0.000000
   0.050000   0.009400   0.000000
   0.050000   0.003100   0.000000
   0.041700   0.025000   0.000000
   0.033300   0.025000   0.000000
   0.025000   0.025000   0.000000
   0.016700   0.025000   0.000000
   0.008300   0.025000   0.000000
   0.045800   0.025000   0.000000
   0.037500   0.025000   0.000000
   0.029200   0.025000   0.000000
   0.020800   0.025000   0.000000
   0.012500   0.025000   0.000000
   0.004200   0.025000   0.000000
   0.091700   0.050000   0.000000
   0.083300   0.050000   0.000000
   0.075000   0.050000   0.000000
   0.066700   0.050000   0.000000
   0.058300   0.050000   0.000000
   0.095800   0.050000   0.000000
   0.087500   0.050000   0.000000
   0.079200   0.050000   0.000000
   0.070800   0.050000   0.000000
   0.062500   0.050000   0.000000
   0.054200   0.050000   0.000000
   0.050000   0.043800   0.000000
   0.050000   0.037500   0.000000
   0.050000   0.031200   0.000000
   0.050000   0.046900   0.000000
   0.050000   0.040600   0.000000
   0.050000   0.034400   0.000000
   0.050000   0.028100   0.000000
   0.041700   0.050000   0.000000
   0.033300   0.050000   0.000000
   0.025000   0.050000   0.000000
   0.016700   0.050000   0.000000
   0.008300   0.050000   0.000000
   0.045800   0.050000   0.000000
   0.037500   0.050000   0.000000
   0.029200   0.050000   0.000000
   0.020800   0.050000   0.000000
   0.012500   0.050000   0.000000
   0.004200   0.050000   0.000000
   0.050000   0.058300   0.000000
   0.050000   0.066700   0.000000
   0.050000   0.075000   0.000000
   0.050000   0.083300   0.000000
   0.050000   0.091700   0.000000
   0.050000   0.054200   0.000000
   0.050000   0.062500   0.000000
   0.050000   0.070800   0.000000
   0.050000   0.079200   0.000000
   0.050000   0.087500   0.000000
   0.050000   0.095800   0.000000
   0.008300   0.006300   0.000000
   0.008300   0.012500   0.000000
   0.008300   0.018800   0.000000
   0.016700   0.006300   0.000000
   0.016700   0.012500   0.000000
   0.016700   0.018800   0.000000
   0.025000   0.006300   0.000000
   0.025000   0.012500   0.000000
   0.025000   0.018800   0.000000
   0.033300   0.006300   0.000000
   0.033300   0.012500   0.000000
   0.033300   0.018800   0.000000
   0.041700   0.006300   0.000000
   0.041700   0.012500   0.000000
   0.041700   0.018800   0.000000
   0.008300   0.003100   0.000000
   0.004200   0.006300   0.000000
   0.004200   0.003100   0.000000
   0.008300   0.009400   0.000000
   0.004200   0.012500   0.000000
   0.004200   0.009400   0.000000
   0.008300   0.015600   0.000000
   0.004200   0.018800   0.000000
   0.004200   0.015600   0.000000
   0.008300   0.021900   0.000000
   0.004200   0.021900   0.000000
   0.016700   0.003100   0.000000
   0.012500   0.006300   0.000000
   0.012500   0.003100   0.000000
   0.016700   0.009400   0.000000
   0.012500   0.012500   0.000000
   0.012500   0.009400   0.000000
   0.016700   0.015600   0.000000
   0.012500   0.018800   0.000000
   0.012500   0.015600   0.000000
   0.016700   0.021900   0.000000
   0.012500   0.021900   0.000000
   0.025000   0.003100   0.000000
   0.020800   0.006300   0.000000
   0.020800   0.003100   0.000000
   0.025000   0.009400   0.000000
   0.020800   0.012500   0.000000
   0.020800   0.009400   0.000000
   0.025000   0.015600   0.000000
   0.020800   0.018800   0.000000
   0.020800   0.015600   0.000000
   0.025000   0.021900   0.000000
   0.020800   0.021900   0.000000
   0.033300   0.003100   0.000000
   0.029200   0.006300   0.000000
   0.029200   0.003100   0.000000
   0.033300   0.009400   0.000000
   0.029200   0.012500   0.000000
   0.029200   0.009400   0.000000
   0.033300   0.015600   0.000000
   0.029200   0.018800   0.000000
   0.029200   0.015600   0.000000
   0.033300   0.021900   0.000000
   0.029200   0.021900   0.000000
   0.041700   0.003100   0.000000
   0.037500   0.006300   0.000000
   0.037500   0.003100   0.000000
   0.041700   0.009400   0.000000
   0.037500   0.012500   0.000000
   0.037500   0.009400   0.000000
   0.041700   0.015600   0.000000
   0.037500   0.018800   0.000000
   0.037500   0.015600   0.000000
   0.041700   0.021900   0.000000
   0.037500   0.021900   0.000000
   0.045800   0.006300   0.000000
   0.045800   0.003100   0.000000
   0.045800   0.012500   0.000000
   0.045800   0.009400   0.000000
   0.045800   0.018800   0.000000
   0.045800   0.015600   0.000000
   0.045800   0.021900   0.000000
   0.058300   0.006300   0.000000
   0.058300   0.012500   0.000000
   0.058300   0.018800   0.000000
   0.066700   0.006300   0.000000
   0.066700   0.012500   0.000000
   0.066700   0.018800   0.000000
   0.075000   0.006300   0.000000
   0.075000   0.012500   0.000000
   0.075000   0.018700   0.000000
   0.083300   0.006200   0.000000
   0.083300   0.012500   0.000000
   0.083300   0.018700   0.000000
   0.091700   0.006200   0.000000
   0.091700   0.012500   0.000000
   0.091700   0.018700   0.000000
   0.058300   0.003100   0.000000
   0.054200   0.006300   0.000000
   0.054200   0.003100   0.000000
   0.058300   0.009400   0.000000
   0.054200   0.012500   0.000000
   0.054200   0.009400   0.000000
   0.058300   0.015600   0.000000
   0.054200   0.018800   0.000000
   0.054200   0.015600   0.000000
   0.058300   0.021900   0.000000
   0.054200   0.021900   0.000000
   0.066700   0.003100   0.000000
   0.062500   0.006300   0.000000
   0.062500   0.003100   0.000000
   0.066700   0.009400   0.000000
   0.062500   0.012500   0.000000
   0.062500   0.009400   0.000000
   0.066700   0.015600   0.000000
   0.062500   0.018800   0.000000
   0.062500   0.015600   0.000000
   0.066700   0.021900   0.000000
   0.062500   0.021900   0.000000
   0.075000   0.003100   0.000000
   0.070800   0.006300   0.000000
[...]
 POINT_DATA         725
 SCALARS displacement double
 LOOKUP_TABLE default
   0.001232
   0.073407
   0.001248
   0.000485
   0.000969
   0.000448
   0.001410
   0.000448
   0.000972
   0.000488
   0.602799
   0.021296
   0.003410
   0.008391
   0.019131
   0.038037
   0.061626
   0.002114
   0.005428
   0.012814
   0.027517
   0.049769
   0.070267
   0.061626
   0.038039
   0.019133
   0.008397
   0.003415
   0.070267
   0.049771
   0.027520
   0.012819
   0.005434
   0.002123
   0.000904
   0.000695
   0.000552
   0.001031
   0.000794
   0.000617
   0.000578
   0.000669
   0.000780
   0.000806
   0.000644
   0.000736
   0.000803
   0.000817
   0.001217
   0.001204
   0.001046
   0.000823
   0.000622
   0.001145
   0.001237
   0.001138
   0.000933
   0.000722
   0.000531
   0.000619
   0.000823
   0.001040
   0.001221
   0.001352
   0.000531
   0.000718
   0.000931
   0.001137
   0.001298
   0.001391
   0.001352
   0.001221
   0.001040
   0.000823
   0.000619
   0.001391
   0.001298
   0.001137
   0.000931
   0.000718
   0.000531
   0.000622
   0.000823
   0.001046
   0.001204
   0.001218
   0.000531
   0.000722
   0.000933
   0.001138
   0.001237
   0.001146
   0.000806
   0.000776
   0.000668
   0.000817
   0.000802
   0.000735
   0.000644
   0.000550
   0.000695
   0.000900
   0.000579
   0.000617
   0.000794
   0.001028
   0.001462
   0.002657
   0.002125
   0.014923
   0.101292
   0.000971
   0.002115
   0.002985
   0.002963
   0.037843
   0.184134
   0.240712
   0.131107
   0.089625
   0.369280
   0.171822
   0.105729
   0.079615
   0.101291
   0.014923
   0.002127
   0.002658
   0.001465
   0.184134
   0.037844
   0.002962
   0.002985
   0.002114
   0.000970
   0.001697
   0.003166
   0.006235
   0.011562
   0.018074
   0.001285
   0.002292
   0.004433
   0.008643
   0.014844
   0.020394
   0.054326
   0.112117
   0.232656
   0.035561
   0.079599
   0.158694
   0.365416
   0.018074
   0.011562
   0.006236
   0.003167
   0.001698
   0.020394
   0.014844
   0.008644
   0.004434
   0.002293
   0.001286
   0.013391
   0.008464
   0.005400
   0.003456
   0.002198
   0.016811
   0.010635
   0.006777
   0.004308
   0.002756
   0.001765
   0.002486
   0.001967
   0.001523
   0.006042
   0.004628
   0.003135
   0.013764
   0.011534
   0.006932
   0.033171
   0.033676
   0.026616
   0.068045
   0.087361
   0.104491
   0.002887
   0.001527
   0.001782
   0.002192
   0.001175
   0.001339
   0.001713
   0.000955
   0.001053
   0.001475
   0.000882
   0.007073
   0.003965
   0.004597
   0.005279
   0.003058
   0.003464
   0.003936
   0.002295
   0.002663
   0.002607
   0.002085
   0.015605
   0.009019
   0.010454
   0.012648
   0.007061
   0.008053
   0.009689
   0.004491
   0.005937
   0.003420
   0.003077
   0.033718
   0.021574
   0.023246
   0.033674
   0.019657
   0.020837
   0.031018
   0.012806
   0.017298
   0.017708
   0.006887
   0.062782
   0.049289
   0.047490
   0.076519
   0.056279
   0.052786
   0.097820
   0.052013
   0.057386
   0.090241
   0.044534
   0.083255
   0.074847
   0.116251
   0.096631
   0.175392
   0.142928
   0.202165
   0.068045
   0.087362
   0.104494
   0.033173
   0.033679
   0.026632
   0.013766
   0.011536
   0.007040
   0.006071
   0.004631
   0.003160
   0.002498
   0.001968
   0.001527
   0.062782
   0.083256
   0.074847
   0.076519
   0.116251
   0.096631
   0.097820
   0.175392
   0.142929
   0.090242
   0.202166
   0.033719
   0.049290
   0.047491
   0.033677
   0.056280
   0.052787
   0.031021
   0.052015
   0.057388
   0.017700
   0.044536
   0.015608
   0.021576
   0.023248
   0.012651
   0.019661
   0.020841
   0.009695
   0.012980
   0.017300
   0.003420
   0.006890
   0.007077
   0.009022
   0.010457
   0.005281
   0.007064
   0.008056
   0.003937
   0.004539
   0.005939
   0.002606
   0.003077
   0.002891
   0.003985
   0.004601
   0.002193
   0.003059
   0.003466
   0.001713
   0.002304
   0.002665
   0.001476
   0.002084
   0.001534
   0.001787
   0.001175
   0.001339
   0.000957
   0.001054
   0.000882
   0.001815
   0.002101
   0.001983
   0.004140
   0.005334
   0.005025
   0.009300
   0.013102
   0.011783
   0.027096
   0.031999
   0.024846
   0.099992
   0.075210
   0.043696
   0.001124
   0.001655
   0.000986
   0.001276
   0.001989
   0.001225
   0.001265
   0.002079
   0.001283
   0.001841
   0.001242
   0.002818
   0.003304
   0.002410
   0.003364
   0.004916
   0.003190
   0.003180
   0.005350
   0.003373
   0.004223
   0.002789
   0.006202
   0.005787
   0.004432
   0.008309
   0.011853
   0.007571
   0.007692
   0.012988
   0.008381
   0.009451
   0.006375
   0.014905
   0.018443
   0.009095
   0.020478
   0.030771
   0.018999
   0.017489
   0.029467
   0.019929
   0.018770
   0.013613
   0.049987
   0.087904
   0.043690
   0.049924
   0.089812
   0.053608
   0.033834
   0.059185
   0.042795
   0.030187
   0.024468
   0.168401
   0.199005
   0.099292
   0.131384
   0.051237
   0.073139
   0.034096
   0.001980
   0.003353
   0.005642
   0.008813
   0.012002
   0.001857
   0.002919
   0.004430
   0.006212
   0.007817
   0.001550
   0.002276
   0.003227
   0.004244
   0.005079
   0.001179
   0.001677
   0.002250
   0.002831
   0.003282
   0.000857
   0.001173
   0.001526
   0.001857
   0.002105
   0.001555
   0.001903
   0.001476
   0.002568
   0.003360
   0.002514
   0.004356
   0.006069
   0.004511
   0.007163
   0.010209
   0.008006
   0.010501
   0.014737
   0.012560
   0.013021
   0.016251
   0.001497
   0.001958
   0.001556
   0.002331
   0.003185
   0.002496
   0.003612
   0.005061
   0.004025
   0.005313
   0.007445
   0.006230
   0.007088
   0.009701
   0.008657
   0.008294
   0.010389
   0.001271
   0.001717
   0.001397
   0.001886
   0.002608
   0.002123
   0.002722
   0.003814
   0.003169
   0.003748
   0.005170
   0.004494
   0.004706
   0.006320
   0.005804
   0.005315
   0.006659
   0.000982
   0.001360
   0.001123
   0.001411
   0.001961
   0.001639
   0.001951
   0.002700
   0.002313
   0.002552
   0.003463
   0.003096
   0.003086
   0.004076
   0.003806
   0.003407
   0.004242
   0.000732
   0.001009
   0.000854
   0.001009
   0.001408
   0.001197
   0.001343
   0.001857
   0.001622
   0.001697
   0.002297
   0.002086
   0.001996
   0.002629
   0.002484
   0.002176
   0.002724
   0.000732
   0.000630
   0.000981
   0.000854
   0.001257
   0.001117
   0.001509
   0.001389
   0.001693
   0.001612
   0.001746
   0.012002
   0.008813
   0.005642
   0.003353
   0.001980
   0.007817
   0.006212
   0.004430
   0.002918
   0.001857
   0.005079
   0.004244
   0.003227
   0.002276
   0.001550
   0.003282
   0.002831
   0.002250
   0.001677
   0.001179
   0.002105
   0.001857
   0.001526
   0.001173
   0.000857
   0.013021
   0.014737
   0.016251
   0.010502
   0.010209
   0.012560
   0.007163
   0.006069
   0.008006
   0.004356
   0.003361
   0.004512
   0.002569
   0.001904
   0.002515
   0.001555
   0.001476
   0.008294
   0.009701
   0.010389
   0.007088
   0.007445
   0.008657
   0.005313
   0.005061
   0.006230
   0.003612
   0.003185
   0.004025
   0.002331
   0.001958
   0.002496
   0.001497
   0.001557
   0.005315
   0.006320
   0.006659
   0.004706
   0.005170
   0.005804
   0.003748
   0.003814
   0.004494
   0.002722
   0.002608
   0.003169
   0.001886
   0.001717
   0.002123
   0.001271
   0.001397
   0.003407
   0.004076
   0.004242
   0.003086
   0.003463
   0.003807
   0.002552
   0.002700
   0.003096
   0.001951
   0.001961
   0.002313
   0.001411
   0.001360
   0.001639
   0.000982
   0.001123
   0.002176
   0.002629
   0.002724
   0.001996
   0.002297
   0.002484
   0.001697
   0.001857
   0.002086
   0.001343
   0.001408
   0.001622
   0.001009
   0.001009
   0.001197
   0.000732
   0.000854
   0.001693
   0.001746
   0.001509
   0.001612
   0.001257
   0.001389
   0.000980
   0.001117
   0.000732
   0.000854
   0.000630
   0.099993
   0.075210
   0.043696
   0.027095
   0.031999
   0.024846
   0.009301
   0.013101
   0.011783
   0.004141
   0.005332
   0.005007
   0.001814
   0.002100
   0.001978
   0.168401
   0.087904
   0.199004
   0.099292
   0.089811
   0.131385
   0.051237
   0.059186
   0.073139
   0.030187
   0.034096
   0.049987
   0.018443
   0.043690
   0.049924
   0.030770
   0.053608
   0.033834
   0.029467
   0.042795
   0.018770
   0.024468
   0.014904
   0.005785
   0.009094
   0.020477
   0.011853
   0.018999
   0.017489
   0.012986
   0.019928
   0.009452
   0.013613
   0.006201
   0.003303
   0.004433
   0.008309
   0.004915
   0.007569
   0.007693
   0.005349
   0.008380
   0.004223
   0.006374
   0.002818
   0.001655
   0.002411
   0.003361
   0.001988
   0.003189
   0.003170
   0.002078
   0.003372
   0.001842
   0.002789
   0.001124
   0.000986
   0.001274
   0.001224
   0.001264
   0.001281
   0.001242
