# vtk DataFile Version 4.3.1
 
ASCII
DATASET UNSTRUCTURED_GRID
 POINTS         294 float
 
  -0.030000  -0.030000   0.000000
   0.030000  -0.030000   0.000000
   0.030000   0.030000   0.000000
  -0.030000   0.030000   0.000000
  -0.030000  -0.030000   0.100000
   0.030000  -0.030000   0.100000
   0.030000   0.030000   0.100000
  -0.030000   0.030000   0.100000
  -0.020000  -0.030000   0.000000
  -0.010000  -0.030000   0.000000
  -0.000000  -0.030000   0.000000
   0.010000  -0.030000   0.000000
   0.020000  -0.030000   0.000000
   0.030000  -0.020000   0.000000
   0.030000  -0.010000   0.000000
   0.030000  -0.000000   0.000000
   0.030000   0.010000   0.000000
   0.030000   0.020000   0.000000
   0.020000   0.030000   0.000000
   0.010000   0.030000   0.000000
   0.000000   0.030000   0.000000
  -0.010000   0.030000   0.000000
  -0.020000   0.030000   0.000000
  -0.030000   0.020000   0.000000
  -0.030000   0.010000   0.000000
  -0.030000   0.000000   0.000000
  -0.030000  -0.010000   0.000000
  -0.030000  -0.020000   0.000000
  -0.020000  -0.030000   0.100000
  -0.010000  -0.030000   0.100000
  -0.000000  -0.030000   0.100000
   0.010000  -0.030000   0.100000
   0.020000  -0.030000   0.100000
   0.030000  -0.020000   0.100000
   0.030000  -0.010000   0.100000
   0.030000  -0.000000   0.100000
   0.030000   0.010000   0.100000
   0.030000   0.020000   0.100000
   0.020000   0.030000   0.100000
   0.010000   0.030000   0.100000
   0.000000   0.030000   0.100000
  -0.010000   0.030000   0.100000
  -0.020000   0.030000   0.100000
  -0.030000   0.020000   0.100000
  -0.030000   0.010000   0.100000
  -0.030000   0.000000   0.100000
  -0.030000  -0.010000   0.100000
  -0.030000  -0.020000   0.100000
  -0.030000  -0.030000   0.020000
  -0.030000  -0.030000   0.040000
  -0.030000  -0.030000   0.060000
  -0.030000  -0.030000   0.080000
   0.030000  -0.030000   0.020000
   0.030000  -0.030000   0.040000
   0.030000  -0.030000   0.060000
   0.030000  -0.030000   0.080000
   0.030000   0.030000   0.020000
   0.030000   0.030000   0.040000
   0.030000   0.030000   0.060000
   0.030000   0.030000   0.080000
  -0.030000   0.030000   0.020000
  -0.030000   0.030000   0.040000
  -0.030000   0.030000   0.060000
  -0.030000   0.030000   0.080000
  -0.020000  -0.020000   0.000000
  -0.020000  -0.010000   0.000000
  -0.020000   0.000000   0.000000
  -0.020000   0.010000   0.000000
  -0.020000   0.020000   0.000000
  -0.010000  -0.020000   0.000000
  -0.010000  -0.010000   0.000000
  -0.010000   0.000000   0.000000
  -0.010000   0.010000   0.000000
  -0.010000   0.020000   0.000000
  -0.000000  -0.020000   0.000000
  -0.000000  -0.010000   0.000000
  -0.000000   0.000000   0.000000
   0.000000   0.010000   0.000000
   0.000000   0.020000   0.000000
   0.010000  -0.020000   0.000000
   0.010000  -0.010000   0.000000
   0.010000  -0.000000   0.000000
   0.010000   0.010000   0.000000
   0.010000   0.020000   0.000000
   0.020000  -0.020000   0.000000
   0.020000  -0.010000   0.000000
   0.020000  -0.000000   0.000000
   0.020000   0.010000   0.000000
   0.020000   0.020000   0.000000
  -0.020000  -0.030000   0.020000
  -0.020000  -0.030000   0.040000
  -0.020000  -0.030000   0.060000
  -0.020000  -0.030000   0.080000
  -0.010000  -0.030000   0.020000
  -0.010000  -0.030000   0.040000
  -0.010000  -0.030000   0.060000
  -0.010000  -0.030000   0.080000
  -0.000000  -0.030000   0.020000
  -0.000000  -0.030000   0.040000
  -0.000000  -0.030000   0.060000
  -0.000000  -0.030000   0.080000
   0.010000  -0.030000   0.020000
   0.010000  -0.030000   0.040000
   0.010000  -0.030000   0.060000
   0.010000  -0.030000   0.080000
   0.020000  -0.030000   0.020000
   0.020000  -0.030000   0.040000
   0.020000  -0.030000   0.060000
   0.020000  -0.030000   0.080000
   0.030000  -0.020000   0.020000
   0.030000  -0.020000   0.040000
   0.030000  -0.020000   0.060000
   0.030000  -0.020000   0.080000
   0.030000  -0.010000   0.020000
   0.030000  -0.010000   0.040000
   0.030000  -0.010000   0.060000
   0.030000  -0.010000   0.080000
   0.030000  -0.000000   0.020000
   0.030000  -0.000000   0.040000
   0.030000  -0.000000   0.060000
   0.030000  -0.000000   0.080000
   0.030000   0.010000   0.020000
   0.030000   0.010000   0.040000
   0.030000   0.010000   0.060000
   0.030000   0.010000   0.080000
   0.030000   0.020000   0.020000
   0.030000   0.020000   0.040000
   0.030000   0.020000   0.060000
   0.030000   0.020000   0.080000
   0.020000   0.030000   0.020000
   0.020000   0.030000   0.040000
   0.020000   0.030000   0.060000
   0.020000   0.030000   0.080000
   0.010000   0.030000   0.020000
   0.010000   0.030000   0.040000
   0.010000   0.030000   0.060000
   0.010000   0.030000   0.080000
   0.000000   0.030000   0.020000
   0.000000   0.030000   0.040000
   0.000000   0.030000   0.060000
   0.000000   0.030000   0.080000
  -0.010000   0.030000   0.020000
  -0.010000   0.030000   0.040000
  -0.010000   0.030000   0.060000
  -0.010000   0.030000   0.080000
  -0.020000   0.030000   0.020000
  -0.020000   0.030000   0.040000
  -0.020000   0.030000   0.060000
  -0.020000   0.030000   0.080000
  -0.030000   0.020000   0.020000
  -0.030000   0.020000   0.040000
  -0.030000   0.020000   0.060000
  -0.030000   0.020000   0.080000
  -0.030000   0.010000   0.020000
  -0.030000   0.010000   0.040000
  -0.030000   0.010000   0.060000
  -0.030000   0.010000   0.080000
  -0.030000   0.000000   0.020000
  -0.030000   0.000000   0.040000
  -0.030000   0.000000   0.060000
  -0.030000   0.000000   0.080000
  -0.030000  -0.010000   0.020000
  -0.030000  -0.010000   0.040000
  -0.030000  -0.010000   0.060000
  -0.030000  -0.010000   0.080000
  -0.030000  -0.020000   0.020000
  -0.030000  -0.020000   0.040000
  -0.030000  -0.020000   0.060000
  -0.030000  -0.020000   0.080000
  -0.020000  -0.020000   0.100000
  -0.020000  -0.010000   0.100000
  -0.020000   0.000000   0.100000
  -0.020000   0.010000   0.100000
  -0.020000   0.020000   0.100000
  -0.010000  -0.020000   0.100000
  -0.010000  -0.010000   0.100000
  -0.010000   0.000000   0.100000
  -0.010000   0.010000   0.100000
  -0.010000   0.020000   0.100000
  -0.000000  -0.020000   0.100000
  -0.000000  -0.010000   0.100000
  -0.000000   0.000000   0.100000
   0.000000   0.010000   0.100000
   0.000000   0.020000   0.100000
   0.010000  -0.020000   0.100000
   0.010000  -0.010000   0.100000
   0.010000  -0.000000   0.100000
   0.010000   0.010000   0.100000
   0.010000   0.020000   0.100000
   0.020000  -0.020000   0.100000
   0.020000  -0.010000   0.100000
   0.020000  -0.000000   0.100000
   0.020000   0.010000   0.100000
   0.020000   0.020000   0.100000
  -0.020000  -0.020000   0.020000
  -0.020000  -0.020000   0.040000
  -0.020000  -0.020000   0.060000
  -0.020000  -0.020000   0.080000
  -0.020000  -0.010000   0.020000
  -0.020000  -0.010000   0.040000
  -0.020000  -0.010000   0.060000
  -0.020000  -0.010000   0.080000
  -0.020000   0.000000   0.020000
  -0.020000   0.000000   0.040000
  -0.020000   0.000000   0.060000
  -0.020000   0.000000   0.080000
  -0.020000   0.010000   0.020000
  -0.020000   0.010000   0.040000
  -0.020000   0.010000   0.060000
  -0.020000   0.010000   0.080000
  -0.020000   0.020000   0.020000
  -0.020000   0.020000   0.040000
  -0.020000   0.020000   0.060000
  -0.020000   0.020000   0.080000
  -0.010000  -0.020000   0.020000
  -0.010000  -0.020000   0.040000
  -0.010000  -0.020000   0.060000
  -0.010000  -0.020000   0.080000
  -0.010000  -0.010000   0.020000
  -0.010000  -0.010000   0.040000
  -0.010000  -0.010000   0.060000
  -0.010000  -0.010000   0.080000
  -0.010000   0.000000   0.020000
  -0.010000   0.000000   0.040000
  -0.010000   0.000000   0.060000
  -0.010000   0.000000   0.080000
  -0.010000   0.010000   0.020000
  -0.010000   0.010000   0.040000
  -0.010000   0.010000   0.060000
  -0.010000   0.010000   0.080000
  -0.010000   0.020000   0.020000
  -0.010000   0.020000   0.040000
  -0.010000   0.020000   0.060000
  -0.010000   0.020000   0.080000
  -0.000000  -0.020000   0.020000
  -0.000000  -0.020000   0.040000
  -0.000000  -0.020000   0.060000
  -0.000000  -0.020000   0.080000
  -0.000000  -0.010000   0.020000
  -0.000000  -0.010000   0.040000
  -0.000000  -0.010000   0.060000
  -0.000000  -0.010000   0.080000
  -0.000000   0.000000   0.020000
  -0.000000   0.000000   0.040000
  -0.000000   0.000000   0.060000
  -0.000000   0.000000   0.080000
   0.000000   0.010000   0.020000
   0.000000   0.010000   0.040000
   0.000000   0.010000   0.060000
   0.000000   0.010000   0.080000
   0.000000   0.020000   0.020000
   0.000000   0.020000   0.040000
   0.000000   0.020000   0.060000
   0.000000   0.020000   0.080000
   0.010000  -0.020000   0.020000
   0.010000  -0.020000   0.040000
   0.010000  -0.020000   0.060000
   0.010000  -0.020000   0.080000
   0.010000  -0.010000   0.020000
   0.010000  -0.010000   0.040000
   0.010000  -0.010000   0.060000
   0.010000  -0.010000   0.080000
   0.010000  -0.000000   0.020000
   0.010000  -0.000000   0.040000
   0.010000  -0.000000   0.060000
   0.010000  -0.000000   0.080000
   0.010000   0.010000   0.020000
   0.010000   0.010000   0.040000
   0.010000   0.010000   0.060000
   0.010000   0.010000   0.080000
   0.010000   0.020000   0.020000
   0.010000   0.020000   0.040000
   0.010000   0.020000   0.060000
   0.010000   0.020000   0.080000
   0.020000  -0.020000   0.020000
   0.020000  -0.020000   0.040000
   0.020000  -0.020000   0.060000
   0.020000  -0.020000   0.080000
   0.020000  -0.010000   0.020000
   0.020000  -0.010000   0.040000
   0.020000  -0.010000   0.060000
   0.020000  -0.010000   0.080000
   0.020000  -0.000000   0.020000
   0.020000  -0.000000   0.040000
   0.020000  -0.000000   0.060000
   0.020000  -0.000000   0.080000
   0.020000   0.010000   0.020000
   0.020000   0.010000   0.040000
   0.020000   0.010000   0.060000
   0.020000   0.010000   0.080000
   0.020000   0.020000   0.020000
   0.020000   0.020000   0.040000
   0.020000   0.020000   0.060000
   0.020000   0.020000   0.080000
 
 CELLS         180        1620
  8       0       8      64      27      48      89     194     165
  8      48      89     194     165      49      90     195     166
  8      49      90     195     166      50      91     196     167
  8      50      91     196     167      51      92     197     168
  8      51      92     197     168       4      28     169      47
  8      27      64      65      26     165     194     198     161
  8     165     194     198     161     166     195     199     162
  8     166     195     199     162     167     196     200     163
  8     167     196     200     163     168     197     201     164
  8     168     197     201     164      47     169     170      46
  8      26      65      66      25     161     198     202     157
  8     161     198     202     157     162     199     203     158
  8     162     199     203     158     163     200     204     159
  8     163     200     204     159     164     201     205     160
  8     164     201     205     160      46     170     171      45
  8      25      66      67      24     157     202     206     153
  8     157     202     206     153     158     203     207     154
  8     158     203     207     154     159     204     208     155
  8     159     204     208     155     160     205     209     156
  8     160     205     209     156      45     171     172      44
  8      24      67      68      23     153     206     210     149
  8     153     206     210     149     154     207     211     150
  8     154     207     211     150     155     208     212     151
  8     155     208     212     151     156     209     213     152
  8     156     209     213     152      44     172     173      43
  8      23      68      22       3     149     210     145      60
  8     149     210     145      60     150     211     146      61
  8     150     211     146      61     151     212     147      62
  8     151     212     147      62     152     213     148      63
  8     152     213     148      63      43     173      42       7
  8       8       9      69      64      89      93     214     194
  8      89      93     214     194      90      94     215     195
  8      90      94     215     195      91      95     216     196
  8      91      95     216     196      92      96     217     197
  8      92      96     217     197      28      29     174     169
  8      64      69      70      65     194     214     218     198
  8     194     214     218     198     195     215     219     199
  8     195     215     219     199     196     216     220     200
  8     196     216     220     200     197     217     221     201
  8     197     217     221     201     169     174     175     170
  8      65      70      71      66     198     218     222     202
  8     198     218     222     202     199     219     223     203
  8     199     219     223     203     200     220     224     204
  8     200     220     224     204     201     221     225     205
  8     201     221     225     205     170     175     176     171
  8      66      71      72      67     202     222     226     206
  8     202     222     226     206     203     223     227     207
  8     203     223     227     207     204     224     228     208
  8     204     224     228     208     205     225     229     209
  8     205     225     229     209     171     176     177     172
  8      67      72      73      68     206     226     230     210
  8     206     226     230     210     207     227     231     211
  8     207     227     231     211     208     228     232     212
  8     208     228     232     212     209     229     233     213
  8     209     229     233     213     172     177     178     173
  8      68      73      21      22     210     230     141     145
  8     210     230     141     145     211     231     142     146
  8     211     231     142     146     212     232     143     147
  8     212     232     143     147     213     233     144     148
  8     213     233     144     148     173     178      41      42
  8       9      10      74      69      93      97     234     214
  8      93      97     234     214      94      98     235     215
  8      94      98     235     215      95      99     236     216
  8      95      99     236     216      96     100     237     217
  8      96     100     237     217      29      30     179     174
  8      69      74      75      70     214     234     238     218
  8     214     234     238     218     215     235     239     219
  8     215     235     239     219     216     236     240     220
  8     216     236     240     220     217     237     241     221
  8     217     237     241     221     174     179     180     175
  8      70      75      76      71     218     238     242     222
  8     218     238     242     222     219     239     243     223
  8     219     239     243     223     220     240     244     224
  8     220     240     244     224     221     241     245     225
  8     221     241     245     225     175     180     181     176
  8      71      76      77      72     222     242     246     226
  8     222     242     246     226     223     243     247     227
  8     223     243     247     227     224     244     248     228
  8     224     244     248     228     225     245     249     229
  8     225     245     249     229     176     181     182     177
  8      72      77      78      73     226     246     250     230
  8     226     246     250     230     227     247     251     231
  8     227     247     251     231     228     248     252     232
  8     228     248     252     232     229     249     253     233
  8     229     249     253     233     177     182     183     178
  8      73      78      20      21     230     250     137     141
  8     230     250     137     141     231     251     138     142
  8     231     251     138     142     232     252     139     143
  8     232     252     139     143     233     253     140     144
  8     233     253     140     144     178     183      40      41
  8      10      11      79      74      97     101     254     234
  8      97     101     254     234      98     102     255     235
  8      98     102     255     235      99     103     256     236
  8      99     103     256     236     100     104     257     237
  8     100     104     257     237      30      31     184     179
  8      74      79      80      75     234     254     258     238
  8     234     254     258     238     235     255     259     239
  8     235     255     259     239     236     256     260     240
  8     236     256     260     240     237     257     261     241
  8     237     257     261     241     179     184     185     180
  8      75      80      81      76     238     258     262     242
  8     238     258     262     242     239     259     263     243
  8     239     259     263     243     240     260     264     244
  8     240     260     264     244     241     261     265     245
  8     241     261     265     245     180     185     186     181
  8      76      81      82      77     242     262     266     246
  8     242     262     266     246     243     263     267     247
  8     243     263     267     247     244     264     268     248
  8     244     264     268     248     245     265     269     249
  8     245     265     269     249     181     186     187     182
  8      77      82      83      78     246     266     270     250
  8     246     266     270     250     247     267     271     251
  8     247     267     271     251     248     268     272     252
  8     248     268     272     252     249     269     273     253
  8     249     269     273     253     182     187     188     183
  8      78      83      19      20     250     270     133     137
  8     250     270     133     137     251     271     134     138
  8     251     271     134     138     252     272     135     139
  8     252     272     135     139     253     273     136     140
  8     253     273     136     140     183     188      39      40
  8      11      12      84      79     101     105     274     254
  8     101     105     274     254     102     106     275     255
  8     102     106     275     255     103     107     276     256
  8     103     107     276     256     104     108     277     257
  8     104     108     277     257      31      32     189     184
  8      79      84      85      80     254     274     278     258
  8     254     274     278     258     255     275     279     259
  8     255     275     279     259     256     276     280     260
  8     256     276     280     260     257     277     281     261
  8     257     277     281     261     184     189     190     185
  8      80      85      86      81     258     278     282     262
  8     258     278     282     262     259     279     283     263
  8     259     279     283     263     260     280     284     264
  8     260     280     284     264     261     281     285     265
  8     261     281     285     265     185     190     191     186
  8      81      86      87      82     262     282     286     266
  8     262     282     286     266     263     283     287     267
  8     263     283     287     267     264     284     288     268
  8     264     284     288     268     265     285     289     269
  8     265     285     289     269     186     191     192     187
  8      82      87      88      83     266     286     290     270
  8     266     286     290     270     267     287     291     271
  8     267     287     291     271     268     288     292     272
  8     268     288     292     272     269     289     293     273
  8     269     289     293     273     187     192     193     188
  8      83      88      18      19     270     290     129     133
  8     270     290     129     133     271     291     130     134
  8     271     291     130     134     272     292     131     135
  8     272     292     131     135     273     293     132     136
  8     273     293     132     136     188     193      38      39
  8      12       1      13      84     105      52     109     274
  8     105      52     109     274     106      53     110     275
  8     106      53     110     275     107      54     111     276
  8     107      54     111     276     108      55     112     277
  8     108      55     112     277      32       5      33     189
  8      84      13      14      85     274     109     113     278
  8     274     109     113     278     275     110     114     279
  8     275     110     114     279     276     111     115     280
  8     276     111     115     280     277     112     116     281
  8     277     112     116     281     189      33      34     190
  8      85      14      15      86     278     113     117     282
  8     278     113     117     282     279     114     118     283
  8     279     114     118     283     280     115     119     284
  8     280     115     119     284     281     116     120     285
  8     281     116     120     285     190      34      35     191
  8      86      15      16      87     282     117     121     286
  8     282     117     121     286     283     118     122     287
  8     283     118     122     287     284     119     123     288
  8     284     119     123     288     285     120     124     289
  8     285     120     124     289     191      35      36     192
  8      87      16      17      88     286     121     125     290
  8     286     121     125     290     287     122     126     291
  8     287     122     126     291     288     123     127     292
  8     288     123     127     292     289     124     128     293
  8     289     124     128     293     192      36      37     193
  8      88      17       2      18     290     125      56     129
  8     290     125      56     129     291     126      57     130
  8     291     126      57     130     292     127      58     131
  8     292     127      58     131     293     128      59     132
  8     293     128      59     132     193      37       6      38
 
 CELL_TYPES         180
12
12
12
12
12
12
12
12
12
12
12
12
12
12
12
12
12
12
12
12
12
12
12
12
12
12
12
12
12
12
12
12
12
12
12
12
12
12
12
12
12
12
12
12
12
12
12
12
12
12
12
12
12
12
12
12
12
12
12
12
12
12
12
12
12
12
12
12
12
12
12
12
12
12
12
12
12
12
12
12
12
12
12
12
12
12
12
12
12
12
12
12
12
12
12
12
12
12
12
12
12
12
12
12
12
12
12
12
12
12
12
12
12
12
12
12
12
12
12
12
12
12
12
12
12
12
12
12
12
12
12
12
12
12
12
12
12
12
12
12
12
12
12
12
12
12
12
12
12
12
12
12
12
12
12
12
12
12
12
12
12
12
12
12
12
12
12
12
12
12
12
12
12
12
12
12
12
12
12
12
 
 POINT_DATA         294
 SCALARS displacement double
 LOOKUP_TABLE default
        NaN
        NaN
        NaN
        NaN
        NaN
        NaN
        NaN
        NaN
        NaN
        NaN
        NaN
        NaN
        NaN
        NaN
        NaN
        NaN
        NaN
        NaN
        NaN
        NaN
        NaN
        NaN
        NaN
        NaN
        NaN
        NaN
        NaN
        NaN
        NaN
        NaN
        NaN
        NaN
        NaN
        NaN
        NaN
        NaN
        NaN
        NaN
        NaN
        NaN
        NaN
        NaN
        NaN
        NaN
        NaN
        NaN
        NaN
        NaN
        NaN
        NaN
        NaN
        NaN
        NaN
        NaN
        NaN
        NaN
        NaN
        NaN
        NaN
        NaN
        NaN
        NaN
        NaN
        NaN
        NaN
        NaN
        NaN
        NaN
        NaN
        NaN
        NaN
        NaN
        NaN
        NaN
        NaN
        NaN
        NaN
        NaN
        NaN
        NaN
        NaN
        NaN
        NaN
        NaN
        NaN
        NaN
        NaN
        NaN
        NaN
        NaN
        NaN
        NaN
        NaN
        NaN
        NaN
        NaN
        NaN
        NaN
        NaN
        NaN
        NaN
        NaN
        NaN
        NaN
        NaN
        NaN
        NaN
        NaN
        NaN
        NaN
        NaN
        NaN
        NaN
        NaN
        NaN
        NaN
        NaN
        NaN
        NaN
        NaN
        NaN
        NaN
        NaN
        NaN
        NaN
        NaN
        NaN
        NaN
        NaN
        NaN
        NaN
        NaN
        NaN
        NaN
        NaN
        NaN
        NaN
        NaN
        NaN
        NaN
        NaN
        NaN
        NaN
        NaN
        NaN
        NaN
        NaN
        NaN
        NaN
        NaN
        NaN
        NaN
        NaN
        NaN
        NaN
        NaN
        NaN
        NaN
        NaN
        NaN
        NaN
        NaN
        NaN
        NaN
        NaN
        NaN
        NaN
        NaN
        NaN
        NaN
        NaN
        NaN
        NaN
        NaN
        NaN
        NaN
        NaN
        NaN
        NaN
        NaN
        NaN
        NaN
        NaN
        NaN
        NaN
        NaN
        NaN
        NaN
        NaN
        NaN
        NaN
        NaN
        NaN
        NaN
        NaN
        NaN
        NaN
        NaN
        NaN
        NaN
        NaN
        NaN
        NaN
        NaN
        NaN
        NaN
        NaN
        NaN
        NaN
        NaN
        NaN
        NaN
        NaN
        NaN
        NaN
        NaN
        NaN
        NaN
        NaN
        NaN
        NaN
        NaN
        NaN
        NaN
        NaN
        NaN
        NaN
        NaN
        NaN
        NaN
        NaN
        NaN
        NaN
        NaN
        NaN
        NaN
        NaN
        NaN
        NaN
        NaN
        NaN
        NaN
        NaN
        NaN
        NaN
        NaN
        NaN
        NaN
        NaN
        NaN
        NaN
        NaN
        NaN
        NaN
        NaN
        NaN
        NaN
        NaN
        NaN
        NaN
        NaN
        NaN
        NaN
        NaN
        NaN
        NaN
        NaN
        NaN
        NaN
        NaN
        NaN
        NaN
        NaN
        NaN
        NaN
        NaN
        NaN
        NaN
        NaN
        NaN
        NaN
        NaN
        NaN
        NaN
        NaN
        NaN
        NaN
        NaN
        NaN
        NaN
        NaN
        NaN
        NaN
        NaN
